<?xml version="1.0"?>
<VTKFile type="UnstructuredGrid"  version="0.1"  >
<UnstructuredGrid>
<Piece  NumberOfPoints="1953" NumberOfCells="8349">
<Points>
<DataArray  type="Float64"  NumberOfComponents="3"  format="ascii">0.07575757575757575 0.25 0.03790958691290248  0.05364896509985308 0.2224498515791352 0.030862494328627  0.0606060606060606 0.25 0  0.08566779387639138 0.2196166255543094 0.02844177999842808  0.8562177547406945 0.1538534058739689 0.04236066314221574  0.8319528071024284 0.1693591258397825 0.08001661059179335  0.8751336657186188 0.1954920800995987 0.05483441696688667  0.8371665752278674 0.1844481733090576 0.03626041681581875  0.7574127462620619 0.2188022938406429 0.18213108395789  0.7915790463057194 0.1995486398803283 0.2015883441131123  0.7792750396189115 0.2072970590713371 0.1574513739790028  0.7727272727272723 0.25 0.1855350216924214  0.7242546766566414 0 0.1294507800646318  0.7596820826803391 0 0.1174056993865202  0.7277563204782722 0.02007089830779375 0.1030679814075042  0.7395908852603041 0.03205470361843573 0.1173230678250966  0.9759077709341905 0.2257052168103813 0.25  0.9716524603890346 0.2213200305758178 0.1880910255488963  0.9529265765699998 0.2034976665757008 0.2034976665757008  0.9606963552273263 0.25 0.210954753094634  0.2371523298954188 0.1509018033681402 0.25  0.2224493572091427 0.1538432454328739 0.2086891971015503  0.2299354323283552 0.1782259663550887 0.25  0.2582474655379973 0.1619274692155314 0.2190079971895114  0.9223188920454546 0 0.078125  0.9279555434218373 0.02912500509929461 0.1193422378085189  0.9145208912346566 0.03323925569843032 0.05928440784028072  0.9014626738047944 0.03897561618407514 0.100249339886664  0.6448272949653229 0.1233506545253181 0.1223398631612927  0.6663339532472277 0.1513453908384462 0.1061784219670739  0.6566027998951249 0.1753016111628101 0.1418979503273518  0.6749999999999999 0.1375 0.1375  0.4410078712292677 0.08662861541046828 0.1108442594398358  0.4522282554553993 0.112877824740831 0.1339460080167464  0.4843757255568354 0.1040636697674368 0.1188457009369193  0.4621558613076621 0.133389075237904 0.1053121175927881  0.6640961486593836 0.2181873304772425 0.1807659813663175  0.6818181818181814 0.25 0.2015180543019239  0.6638648974663551 0.25 0.1534774212487154  0.6515151515151512 0.25 0.2112225001805008  0.1863514201242166 0 0.1250000000000001  0.136363636363637 0 0.125  0.1669622288237501 0.02846527359257758 0.1344579675084781  0.1611099826225848 0 0.09473248915378928  0.7268032385664154 0.1754549069515148 0.2142994581796659  0.7569828758265496 0.1502733882277553 0.2098044099824579  0.754878246569522 0.2042392054411295 0.2137682638280405  0.7476686178631283 0.174934048951234 0.25  0.7442569753858029 0.1422784575193022 0.1117555589947506  0.7488164160239639 0.1237372102822733 0.130443534106622  0.7692273286709009 0.1614586150675894 0.1483511862273991  0.7144775491008397 0.1404746811617351 0.137781255462836  1 0.03125 0.25  0.9628491044721695 0.02185455046759708 0.2265617629428098  1 0.0409104902478813 0.2090895097521187  1 0 0.21875  0.2567502996653404 0.1858620976699478 0.1281792205757925  0.2792084841258944 0.1966565590793728 0.1209111980506313  0.2628174267420679 0.1848245883851546 0.0997875566542009  0.2434840139447743 0.2199632471064455 0.1245895962147085  1 0.05866539039370391 0.06037009985417724  0.9741387882188207 0.02609342399410412 0.04569557496715265  0.9712873131825775 0.05101370470893204 0.02889993677915016  1 0.04091049024788117 0.04091049024788117  0.4501988152348453 0.2063456077279214 0.1961640651274719  0.4696969696969695 0.25 0.204655305828215  0.4246869369923191 0.2184759023236545 0.2182075315257942  0.4677072097545963 0.2038877521249253 0.2152064245683817  0.2598038729809218 0.03064703157723373 0.09550518005448252  0.2505130112852206 0 0.1294576035839716  0.2430367769962145 0.0325815882130352 0.1250554374773044  0.2308559688668331 0 0.1105324595681113  0.7272727272727273 0 0  0.7424242424242424 0 0.03891312140466232  0.7524631766173143 0.02967746659786972 0.02823304444195196  0.7289231588859826 0.03078280560904682 0.04891705055254986  0.3614884082111831 0.1159201109093674 0.03144423089810554  0.3511481486411235 0.1221093712539625 0.07059571519359739  0.3507136391597118 0.1493196849420813 0.02850324219553804  0.3372513386700249 0.1419762451754466 0.06276239801016867  0.08339398821064031 0.1537355235373079 0.2119136529455878  0.114221366573892 0.1277918019051962 0.1930958721620114  0.1102754465421502 0.118013845732359 0.2253341181491683  0.07172545381825718 0.1248904136728759 0.2237900283384823  0.5123609295634036 0 0.1534923320456107  0.5369694478337855 0.04089822256344092 0.1533221980323581  0.5606060606060603 0 0.1709403630966747  0.5450693424029035 0 0.1175347838083552  0.6625266929585564 0.1877677991387411 0.1027659007138426  0.7077475571936753 0.187229012475052 0.1174660048768209  0.6942889918144892 0.1621836949394618 0.08749999999999999  0.6915001644492023 0.2098231351373109 0.09758589469321227  0.4201066323297087 0.2120122279915259 0.03477202002280433  0.4589929349972319 0.2203110006571163 0.03107565493691238  0.4242424242424241 0.25 0  0.4395924463723699 0.25 0.03786008775443126  0.3298391938252921 0.06937671462847783 0.215360740631254  0.2916196108508979 0.07356881739383112 0.2189602761802985  0.3069593384004686 0.1159512909576662 0.1990147664817971  0.3059817491043486 0.09265005473861877 0.1920802951912154  0.4637227067584688 0.080431282959413 0.2168597782743045  0.4857683083629796 0.09536792359820304 0.1918017694060231  0.5243235860383603 0.07037931149340997 0.2178676682775146  0.5005018927228215 0.05512188963088922 0.1941437778509607  0.9090909090909085 0.25 0.25  0.8939393939393934 0.2068350769926239 0.25  0.9076235261798535 0.2179238877756424 0.2282701108950699  0.9242424242424236 0.2120904130870975 0.25  0.7910222880968687 0.09696122359084677 0  0.8142221610441265 0.08817970505167194 0.03246012568290522  0.8333333333333334 0.06813807288976396 0  0.8282277484934639 0.1086539008312803 0  0.9606963552273263 0.03904524690536599 0.25  0.9759077709341905 0.02429478318961871 0.25  0.9393939393939388 0 0.25  0.6593565256512663 0.1447280248703965 0  0.6564736444840418 0.1291906438681357 0.0440930605272123  0.6429291571985091 0.1734196339295293 0.04037889436630215  0.6089766122247088 0.1471314700215747 0.04082618446966237  0.4090909090909094 0 0.04268164055546453  0.4242424242424245 0 0  0.4291831917329699 0.03344676844160661 0.02523767347498384  0.4405870482444605 0 0.05025381688510157  0.2181240723682875 0.09854645670283896 0.04318396317589645  0.2156337297852672 0.06883826719996038 0.02784363031351524  0.194176156167343 0.1031548855396672 0  0.2253080413904327 0.08688261585073941 0  0.3033482706033205 0.1234520687561139 0.05027117688705416  0.3213372349063898 0.07997040765006591 0.03063411788011063  0.313878155244444 0.09374483926374096 0  0.3242025935439453 0.1111139555444266 0.05583117836124264  0.2272727272727273 0.2063614154401405 0.25  0.2453946730425044 0.2199338433124313 0.220121892836384  0.2452414772727273 0.1938614154401405 0.2  0.212546466789984 0.2183504399716459 0.2183404004084244  0.1792466969749637 0.1426400717548445 0.1654920173945824  0.1708975214470387 0.1213367295246886 0.1393426263460927  0.2295175576087319 0.1442933442295154 0.1402211799516199  0.1975211328146108 0.1124339226410055 0.1624524678906703  0.8061220020989389 0.08482540534646811 0.2079739533041092  0.7802975807431348 0.06645613137050323 0.2208368670298161  0.8030303030303025 0.04268164055546453 0.25  0.8030303030303025 0.07915735663632056 0.25  0 0.140625 0.049466169757921  0 0.109375 0.03942226407348003  0 0.125 0  0.02698883777906227 0.1294052107227351 0.03246189906792179  0.2092265547946419 0.1236891960691765 0.25  0.1969696969696969 0.1708426433636794 0.25  0.9103539486395047 0 0.1216581327604178  0.9242424242424236 0 0.1746728650137734  0.9513240775843812 0 0.140625  0.9108171152692826 0.0379549401915389 0.1523242389610291  0.535792178058597 0.2212624813537918 0.1911467291103175  0.5441427967154689 0.2260974783469991 0.2185269889978603  0.5606060606060603 0.25 0.1946315670755164  0.5303030303030301 0.25 0.2095872471859758  0.7156665209033954 0.09854717850218075 0.0152818408509221  0.7336056085542997 0.1171114409921487 0.02803590814983408  0.7242546766566413 0.1294507800646318 0  0.7050401652285703 0.1261792055618665 0.02388725193919728  1 0.125 0.25  1 0.15625 0.25  1 0.140625 0.2173755659578797  0.9696113793223557 0.1370291440463113 0.2246601495635443  0.3955889579885797 0.2178863892014993 0.02202235344238854  0.3787878787878787 0.2123261905107628 0  0.3636363636363635 0.25 0  0.3939393939393938 0.25 0  0 0.03262443404212028 0.109375  0.02405070309267678 0.03177745936795642 0.09233764977592973  0 0.0568665736607143 0.109375  0.0310414309603772 0.0268760724743055 0.1349954709151482  0.221777402160288 0.2098080486553739 0.1524726211944464  0.2432123528629669 0.1714966082129259 0.110948154632434  0.1660951406945734 0.2232788038303951 0.1303498780990613  0.1788914201030405 0.2118315079227321 0.1633967941203276  0.2092265271725802 0.25 0.1221815470608233  1 0.25 0.21875  1 0.25 0.1875  0.5718683469257898 0.1596313726690083 0.1828646271524267  0.6075177104703477 0.1620040947976077 0.2069886436747665  0.6008281169815415 0.1348041972332817 0.1704765765856777  0.6068991724832379 0.1791864446478836 0.1757572623857971  0.726749394362585 0.1788706748522701 0.03247966699327654  0.7589503188599726 0.1637025613744621 0.03420484152847388  0.7464533208611501 0.1763373902306178 0  0.7208964397033631 0.08782304036834176 0.1593310143150436  0.7653256622258389 0.08913246237678929 0.1753086681243908  0.7256419616496377 0.117063153015772 0.2018987202853366  0.7214836274700464 0.08248389722525354 0.1945240668707041  0.3951187192710794 0.07765024233476497 0.2197209293783133  0.3602074467816995 0.0489204032535169 0.1995840089936463  0.4085450407443092 0.06419476711634423 0.1873463897412622  0.392291367340614 0.02643294747614342 0.2178636774040471  0.045825214
[...]
<PointData  Scalars="f_21-1"> 
<DataArray  type="Float64"  Name="f_21-1"  format="ascii">-nan  -nan  -nan  -nan  -nan  -nan  nan  -nan  -nan  -nan  -nan  -nan  -nan  nan  nan  -nan  -nan  -nan  -nan  nan  -nan  nan  -nan  -nan  -nan  nan  nan  -nan  -nan  -nan  -nan  nan  -nan  -nan  -nan  -nan  -nan  -nan  -nan  -nan  -nan  -nan  -nan  -nan  -nan  -nan  -nan  -nan  -nan  -nan  -nan  -nan  nan  nan  -nan  -nan  -nan  -nan  -nan  -nan  nan  nan  nan  nan  -nan  nan  -nan  -nan  -nan  -nan  -nan  -nan  -nan  -nan  nan  -nan  nan  -nan  -nan  -nan  nan  -nan  nan  nan  -nan  -nan  -nan  -nan  -nan  nan  -nan  -nan  nan  -nan  -nan  -nan  -nan  -nan  -nan  -nan  -nan  -nan  -nan  -nan  -nan  -nan  -nan  -nan  nan  -nan  -nan  nan  -nan  -nan  nan  -nan  nan  nan  -nan  -nan  -nan  -nan  -nan  nan  -nan  -nan  -nan  -nan  -nan  -nan  -nan  -nan  -nan  -nan  -nan  nan  -nan  nan  nan  -nan  -nan  -nan  -nan  -nan  -nan  -nan  -nan  -nan  -nan  -nan  -nan  nan  nan  -nan  -nan  nan  nan  nan  -nan  nan  nan  nan  -nan  -nan  -nan  -nan  -nan  -nan  nan  nan  -nan  -nan  -nan  -nan  -nan  -nan  -nan  -nan  -nan  -nan  -nan  -nan  -nan  nan  -nan  -nan  nan  -nan  -nan  -nan  -nan  -nan  -nan  nan  -nan  -nan  -nan  -nan  -nan  -nan  nan  -nan  -nan  -nan  -nan  -nan  -nan  -nan  nan  nan  -nan  -nan  -nan  -nan  -nan  -nan  -nan  -nan  -nan  -nan  nan  -nan  nan  -nan  -nan  -nan  -nan  -nan  nan  -nan  -nan  -nan  -nan  -nan  -nan  -nan  -nan  nan  -nan  -nan  -nan  -nan  -nan  -nan  -nan  -nan  -nan  -nan  -nan  -nan  -nan  nan  -nan  -nan  -nan  -nan  -nan  nan  -nan  nan  -nan  -nan  -nan  -nan  -nan  -nan  -nan  -nan  -nan  -nan  -nan  -nan  -nan  -nan  -nan  -nan  -nan  -nan  -nan  -nan  -nan  -nan  -nan  -nan  -nan  -nan  -nan  -nan  nan  nan  -nan  -nan  -nan  -nan  -nan  nan  -nan  -nan  -nan  -nan  -nan  -nan  -nan  -nan  -nan  -nan  -nan  -nan  -nan  -nan  -nan  -nan  -nan  -nan  -nan  -nan  -nan  -nan  nan  -nan  -nan  nan  -nan  -nan  nan  nan  -nan  nan  -nan  nan  -nan  -nan  -nan  -nan  nan  nan  nan  nan  -nan  nan  -nan  -nan  -nan  -nan  -nan  -nan  -nan  -nan  -nan  -nan  nan  -nan  nan  -nan  -nan  nan  nan  nan  -nan  -nan  -nan  -nan  nan  -nan  -nan  -nan  -nan  -nan  nan  nan  -nan  -nan  -nan  -nan  -nan  -nan  -nan  -nan  -nan  -nan  -nan  -nan  -nan  -nan  -nan  -nan  -nan  -nan  -nan  -nan  nan  -nan  -nan  -nan  -nan  -nan  -nan  -nan  -nan  nan  -nan  -nan  -nan  -nan  -nan  nan  -nan  -nan  -nan  -nan  -nan  nan  nan  -nan  nan  nan  -nan  nan  -nan  -nan  nan  nan  -nan  -nan  -nan  -nan  -nan  -nan  nan  nan  -nan  -nan  -nan  -nan  -nan  -nan  -nan  nan  nan  nan  -nan  -nan  nan  -nan  -nan  nan  nan  -nan  -nan  -nan  -nan  -nan  nan  -nan  -nan  -nan  -nan  -nan  -nan  -nan  nan  -nan  -nan  nan  -nan  -nan  -nan  -nan  -nan  -nan  -nan  nan  -nan  -nan  -nan  -nan  -nan  -nan  -nan  -nan  -nan  -nan  -nan  -nan  -nan  nan  -nan  -nan  -nan  nan  -nan  -nan  -nan  -nan  -nan  -nan  nan  -nan  -nan  -nan  nan  -nan  -nan  -nan  -nan  -nan  -nan  -nan  nan  -nan  -nan  -nan  -nan  -nan  -nan  -nan  -nan  -nan  nan  nan  -nan  -nan  nan  nan  -nan  -nan  -nan  -nan  -nan  -nan  nan  -nan  -nan  -nan  -nan  -nan  nan  -nan  -nan  -nan  -nan  -nan  -nan  -nan  -nan  -nan  nan  -nan  -nan  -nan  -nan  -nan  -nan  -nan  -nan  -nan  -nan  nan  -nan  -nan  -nan  nan  -nan  -nan  -nan  -nan  nan  -nan  nan  -nan  -nan  -nan  -nan  -nan  -nan  -nan  nan  -nan  -nan  nan  -nan  -nan  -nan  nan  -nan  -nan  nan  -nan  -nan  -nan  -nan  -nan  -nan  -nan  -nan  -nan  -nan  -nan  nan  nan  -nan  nan  -nan  nan  nan  nan  -nan  -nan  -nan  -nan  -nan  nan  -nan  -nan  -nan  -nan  -nan  -nan  -nan  nan  -nan  -nan  -nan  -nan  -nan  -nan  -nan  -nan  -nan  nan  -nan  -nan  -nan  -nan  -nan  nan  -nan  -nan  -nan  -nan  -nan  -nan  -nan  -nan  -nan  -nan  nan  -nan  nan  -nan  -nan  -nan  -nan  -nan  -nan  -nan  -nan  nan  -nan  -nan  nan  -nan  -nan  -nan  -nan  -nan  nan  nan  -nan  -nan  -nan  -nan  -nan  -nan  -nan  -nan  -nan  -nan  -nan  -nan  -nan  -nan  -nan  nan  nan  -nan  -nan  -nan  nan  -nan  -nan  -nan  nan  -nan  -nan  -nan  -nan  -nan  -nan  -nan  -nan  -nan  -nan  -nan  -nan  -nan  nan  -nan  -nan  -nan  -nan  -nan  -nan  nan  -nan  -nan  nan  -nan  nan  -nan  -nan  nan  -nan  -nan  -nan  -nan  -nan  nan  nan  nan  -nan  nan  -nan  -nan  -nan  -nan  -nan  -nan  -nan  -nan  -nan  -nan  -nan  -nan  -nan  nan  -nan  -nan  -nan  -nan  -nan  -nan  -nan  nan  -nan  -nan  -nan  -nan  -nan  -nan  -nan  -nan  -nan  nan  -nan  nan  -nan  -nan  nan  -nan  -nan  -nan  -nan  -nan  nan  -nan  -nan  -nan  nan  -nan  nan  -nan  -nan  -nan  -nan  -nan  -nan  -nan  nan  -nan  -nan  -nan  -nan  -nan  -nan  -nan  -nan  -nan  -nan  -nan  -nan  -nan  -nan  -nan  nan  nan  nan  nan  -nan  -nan  -nan  -nan  nan  -nan  -nan  nan  -nan  -nan  -nan  -nan  -nan  nan  -nan  -nan  -nan  -nan  -nan  -nan  -nan  -nan  -nan  -nan  -nan  -nan  -nan  -nan  -nan  nan  -nan  -nan  nan  -nan  -nan  -nan  nan  -nan  -nan  -nan  -nan  -nan  -nan  -nan  nan  -nan  -nan  -nan  nan  -nan  -nan  -nan  -nan  -nan  -nan  -nan  -nan  nan  -nan  -nan  -nan  -nan  -nan  -nan  -nan  -nan  -nan  -nan  nan  -nan  nan  -nan  -nan  -nan  -nan  nan  nan  -nan  -nan  nan  -nan  -nan  -nan  -nan  -nan  nan  -nan  -nan  -nan  -nan  -nan  -nan  -nan  -nan  nan  -nan  -nan  -nan  -nan  -nan  -nan  nan  -nan  -nan  -nan  nan  -nan  -nan  -nan  -nan  -nan  -nan  -nan  -nan  nan  -nan  -nan  -nan  -nan  nan  -nan  -nan  -nan  nan  nan  -nan  -nan  -nan  -nan  -nan  -nan  -nan  -nan  -nan  nan  -nan  nan  -nan  -nan  -nan  -nan  -nan  -nan  nan  -nan  nan  -nan  -nan  -nan  -nan  -nan  -nan  -nan  -nan  -nan  nan  nan  -nan  -nan  -nan  -nan  -nan  -nan  -nan  -nan  -nan  -nan  nan  nan  -nan  nan  -nan  -nan  -nan  -nan  -nan  nan  nan  nan  -nan  -nan  -nan  nan  -nan  -nan  -nan  -nan  -nan  nan  nan  -nan  -nan  -nan  nan  -nan  -nan  nan  -nan  nan  -nan  nan  nan  -nan  -nan  -nan  -nan  -nan  -nan  nan  -nan  -nan  -nan  nan  -nan  -nan  -nan  -nan  -nan  -nan  nan  nan  nan  -nan  -nan  -nan  -nan  -nan  nan  -nan  nan  -nan  -nan  nan  -nan  nan  -nan  -nan  -nan  -nan  -nan  -nan  -nan  -nan  -nan  -nan  -nan  -nan  nan  -nan  -nan  -nan  -nan  -nan  -nan  -nan  nan  -nan  -nan  -nan  -nan  -nan  -nan  -nan  -nan  -nan  -nan  nan  -nan  -nan  nan  -nan  -nan  -nan  -nan  -nan  -nan  -nan  -nan  nan  -nan  nan  nan  -nan  -nan  -nan  -nan  -nan  -nan  -nan  -nan  nan  -nan  -nan  -nan  -nan  nan  -nan  -nan  -nan  -nan  -nan  -nan  -nan  -nan  -nan  -nan  -nan  -nan  -nan  nan  nan  -nan  -nan  -nan  -nan  -nan  -nan  nan  -nan  -nan  -nan  -nan  -nan  -nan  -nan  -nan  -nan  nan  -nan  -nan  -nan  -nan  -nan  nan  -nan  -nan  -nan  -nan  -nan  -nan  -nan  -nan  -nan  -nan  -nan  nan  -nan  nan  -nan  -nan  -nan  -nan  -nan  -nan  -nan  -nan  -nan  -nan  -nan  nan  nan  nan  -nan  nan  -nan  nan  -nan  -nan  -nan  -nan  -nan  -nan  -nan  -nan  nan  nan  nan  -nan  -nan  -nan  -nan  -nan  -nan  -nan  -nan  -nan  -nan  -nan  nan  -nan  -nan  -nan  -nan  -nan  -nan  nan  -nan  -nan  -nan  -nan  -nan  -nan  -nan  nan  -nan  -nan  -nan  -nan  -nan  -nan  -nan  -nan  -nan  -nan  -nan  nan  -nan  -nan  -nan  nan  nan  -nan  -nan  -nan  -nan  -nan  nan  -nan  -nan  -nan  -nan  -nan  -nan  -nan  -nan  -nan  -nan  nan  nan  nan  -nan  -nan  -nan  -nan  -nan  -nan  nan  -nan  -nan  nan  -nan  -nan  -nan  -nan  -nan  -nan  -nan  -nan  nan  -nan  -nan  -nan  -nan  nan  -nan  -nan  -nan  -nan  -nan  -nan  nan  -nan  -nan  -nan  -nan  -nan  -nan  -nan  -nan  -nan  -nan  nan  -nan  -nan  nan  nan  nan  -nan  -nan  -nan  -nan  -nan  -nan  -nan  -nan  -nan  -nan  -nan  -nan  -nan  -nan  -nan  nan  -nan  -nan  nan  -nan  -nan  -nan  nan  nan  -nan  -nan  -nan  -nan  nan  nan  -nan  -nan  -nan  -nan  -nan  -nan  -nan  -nan  -nan  -nan  nan  -nan  -nan  nan  -nan  -nan  nan  nan  nan  -nan  -nan  -nan  nan  -nan  nan  nan  -nan  -nan  -nan  nan  -nan  -nan  -nan  -nan  -nan  nan  -nan  -nan  -nan  -nan  -nan  nan  nan  nan  -nan  nan  -nan  -nan  -nan  -nan  -nan  -nan  -nan  -nan  -nan  -nan  -nan  -nan  -nan  -nan  nan  nan  nan  nan  -nan  -nan  -nan  -nan  -nan  -nan  -nan  -nan  -nan  -nan  -nan  -nan  -nan  -nan  nan  nan  -nan  -nan  nan  -nan  nan  -nan  -nan  -nan  nan  -nan  -nan  -nan  nan  -nan  nan  nan  nan  nan  -nan  -nan  -nan  -nan  -nan  nan  -nan  -nan  -nan  -nan  -nan  -nan  -nan  -nan  -nan  -nan  -nan  -nan  -nan  -nan  -nan  -nan  -nan  -nan  -nan  -nan  -nan  -nan  -nan  -nan  -nan  -nan  nan  -nan  nan  -nan  nan  -nan  -nan  -nan  -nan  nan  -nan  -nan  nan  -nan  -nan  nan  -nan  -nan  -nan  -nan  -nan  nan  -nan  -nan  nan  -nan  -nan  -nan  -nan  -nan  -nan  -nan  -nan  -nan  -nan  -nan  -nan  -nan  nan  -nan  -nan  -nan  -nan  -nan  -nan  nan  -nan  -nan  -nan  -nan  -nan  -nan  nan  -nan  -nan  -nan  nan  -nan  -nan  nan  -nan  -nan  -nan  -nan  -nan  -nan  nan  nan  -nan  -nan  -nan  -nan  -nan  nan  -nan  -nan  nan  -nan  -nan  -nan  -nan  -nan  -nan  -nan  -nan  -nan  -nan  nan  nan  -nan  -nan  -nan  -nan  -nan  -nan  -nan  -nan  -nan  -nan  -nan  -nan  -nan  -nan  -nan  -nan  -nan  -nan  nan  nan  -nan  -nan  -nan  -nan  -nan  -nan  -nan  nan  -nan  -nan  nan  nan  -nan  -nan  -nan  -nan  -nan  nan  -nan  nan  nan  nan  -nan  nan  -nan  nan  -nan  -nan  -nan  -nan  nan  -nan  -nan  nan  nan  nan  -nan  -nan  -nan  -nan  -nan  -nan  nan  -nan  nan  -nan  -nan  -nan  -nan  -nan  -nan  -nan  -nan  -nan  -nan  nan  -nan  -nan  -nan  -nan  -nan  -nan  -nan  -nan  nan  -nan  -nan  -nan  -nan  -nan  -nan  -nan  -nan  -nan  -nan  -nan  -nan  -nan  nan  nan  -nan  -nan  -nan  nan  -nan  -nan  -nan  -nan  nan  -nan  -nan  -nan  -nan  -nan  -nan  -nan  -nan  -nan  -nan  -nan  -nan  -nan  nan  nan  nan  -nan  -nan  -nan  -nan  -nan  -nan  -nan  -nan  -nan  nan  nan  -nan  -nan  -nan  -nan  -nan  -nan  -nan  -nan  -nan  -nan  nan  -nan  -nan  -nan  -nan  -nan  nan  -nan  -nan  -nan  -nan  nan  -nan  -nan  -nan  -nan  -nan  -nan  -nan  -nan  -nan  -nan  -nan  -nan  -nan  -nan  -nan  nan  -nan  -nan  -nan  -nan  nan  nan  -nan  -nan  -nan  -nan  -nan  nan  nan  -nan  -nan  nan  -nan  -nan  -nan  -nan  nan  -nan  -nan  -nan  -nan  -nan  -nan  -nan  -nan  nan  -nan  -nan  -nan  nan  -nan  -nan  -nan  -nan  nan  nan  -nan  -nan  -nan  -nan  -nan  nan  -nan  -nan  -nan  -nan  -nan  -nan  nan  -nan  -nan  -nan  -nan  -nan  nan  nan  -nan  -nan  -nan  nan  -nan  -nan  -nan  -nan  -nan  -nan  -nan  -nan  nan  -nan  -nan  -nan  -nan  -nan  nan  -nan  -nan  -nan  -nan  nan  -nan  -nan  -nan  nan  -nan  -nan  -nan  -nan  -nan  -nan  -nan  -nan  -nan  nan  -nan  -nan  -nan  -nan  -nan  -nan  -nan  -nan  -nan  -nan  -nan  -nan  -nan  -nan  -nan  -nan  -nan  nan  -nan  nan  -nan  -nan  -nan  -nan  -nan  -nan  -nan  nan  -nan  -nan  -nan  -nan  -nan  -nan  -nan  -nan  nan  nan  -nan  -nan  -nan  -nan  nan  -nan  -nan  -nan  -nan  nan  -nan  -nan  nan  nan  -nan  -nan  -nan  -nan  -nan  -nan  -nan  -nan  -nan  -nan  -nan  -nan  -nan  -nan  -nan  -nan  -nan  -nan  nan  -nan  -nan  -nan  nan  nan  nan  nan  -nan  -nan  nan  nan  -nan  -nan  -nan  -nan  -nan  -nan  -nan  -nan  -nan  -nan  -nan  -nan  -nan  nan  nan  -nan  nan  -nan  -nan  -nan  nan  nan  -nan  -nan  -nan  nan  -nan  -nan  -nan  -nan  -nan  -nan  -nan  -nan  -nan  -nan  -nan  -nan  -nan  -nan  -nan  -nan  -nan  nan  -nan  -nan  -nan  -nan  -nan  -nan  nan  -nan  -nan  -nan  -nan  </DataArray> 
</PointData> 
</Piece>
</UnstructuredGrid>
</VTKFile>